# vtk DataFile Version 2.0
2D Unstructured Grid of Linear Triangles
ASCII

DATASET UNSTRUCTURED_GRID
POINTS 1112 float
0.000000 0.000000 0.000000
0.227690 0.331848 0.000000
0.437874 0.510542 0.000000
0.645030 0.658607 0.000000
0.850541 0.787747 0.000000
1.054948 0.902542 0.000000
1.258531 1.005372 0.000000
1.461462 1.097679 0.000000
1.663854 1.180423 0.000000
1.865788 1.254289 0.000000
2.067324 1.319791 0.000000
2.268510 1.377329 0.000000
2.469384 1.427227 0.000000
2.669978 1.469749 0.000000
2.870317 1.505118 0.000000
3.070424 1.533527 0.000000
3.270319 1.555139 0.000000
3.470019 1.570100 0.000000
3.669539 1.578539 0.000000
3.868893 1.580569 0.000000
4.068092 1.576292 0.000000
4.267148 1.567190 0.000000
4.466071 1.554735 0.000000
4.664868 1.539002 0.000000
4.863549 1.520059 0.000000
5.062120 1.497968 0.000000
5.260589 1.472784 0.000000
5.458960 1.444560 0.000000
5.657241 1.413340 0.000000
5.855435 1.379165 0.000000
6.053547 1.342073 0.000000
6.251580 1.302096 0.000000
6.449539 1.259263 0.000000
6.647425 1.213599 0.000000
6.845242 1.165125 0.000000
7.042992 1.113860 0.000000
7.240677 1.059817 0.000000
7.438297 1.003008 0.000000
7.635854 0.943442 0.000000
7.833348 0.881124 0.000000
8.030780 0.816055 0.000000
8.228149 0.748235 0.000000
8.425455 0.677661 0.000000
8.622698 0.604325 0.000000
8.819876 0.528217 0.000000
9.016987 0.449327 0.000000
9.214031 0.367639 0.000000
9.411004 0.283135 0.000000
9.607905 0.195795 0.000000
9.804731 0.105596 0.000000
10.001478 0.012513 0.000000
9.998522 -0.012513 0.000000
9.795269 0.025515 0.000000
9.592095 0.061983 0.000000
9.388996 0.096865 0.000000
9.185969 0.130139 0.000000
8.983013 0.161784 0.000000
8.780124 0.191783 0.000000
8.577302 0.220120 0.000000
8.374545 0.246784 0.000000
8.171851 0.271765 0.000000
7.969220 0.295056 0.000000
7.766652 0.316654 0.000000
7.564146 0.336558 0.000000
7.361703 0.354769 0.000000
7.159323 0.371294 0.000000
6.957008 0.386140 0.000000
6.754758 0.399319 0.000000
6.552575 0.410845 0.000000
6.350461 0.420737 0.000000
6.148420 0.429015 0.000000
5.946453 0.435704 0.000000
5.744565 0.440835 0.000000
5.542759 0.444438 0.000000
5.341040 0.446551 0.000000
5.139411 0.447216 0.000000
4.937880 0.446477 0.000000
4.736451 0.444386 0.000000
4.535132 0.440998 0.000000
4.333929 0.436376 0.000000
4.132852 0.430587 0.000000
3.931908 0.423708 0.000000
3.731107 0.414431 0.000000
3.530461 0.401461 0.000000
3.329981 0.384900 0.000000
3.129681 0.364861 0.000000
2.929576 0.341473 0.000000
2.729683 0.314882 0.000000
2.530022 0.285251 0.000000
2.330616 0.252773 0.000000
2.131490 0.217671 0.000000
1.932676 0.180209 0.000000
1.734212 0.140711 0.000000
1.536146 0.099577 0.000000
1.338538 0.057321 0.000000
1.141469 0.014628 0.000000
0.945052 -0.027542 0.000000
0.749459 -0.067747 0.000000
0.554970 -0.103607 0.000000
0.362126 -0.130542 0.000000
0.172310 -0.136848 0.000000
-2.000000 -2.000000 0.000000
12.000000 -2.000000 0.000000
12.000000 3.000000 0.000000
-2.000000 3.000000 0.000000
5.000000 -2.000000 0.000000
5.000000 3.000000 0.000000
1.500000 -2.000000 0.000000
1.500000 3.000000 0.000000
10.044364 -0.005242 0.000000
12.000000 0.500000 0.000000
10.034332 -0.090144 0.000000
10.128348 -0.214724 0.000000
8.500000 -2.000000 0.000000
9.932539 0.121268 0.000000
10.132562 -0.058706 0.000000
10.150478 -0.477645 0.000000
10.063172 0.304608 0.000000
9.840853 0.340000 0.000000
10.199887 0.019426 0.000000
9.878809 -0.114811 0.000000
10.304731 -0.138990 0.000000
9.927418 -0.618576 0.000000
9.658766 -0.150780 0.000000
10.054396 0.079660 0.000000
-0.115422 -0.411968 0.000000
2.530016 1.635606 0.000000
1.315687 -0.313374 0.000000
2.487894 -0.084481 0.000000
3.653776 0.052256 0.000000
4.641797 0.085808 0.000000
4.797789 1.881736 0.000000
4.088011 2.100077 0.000000
6.633234 0.046668 0.000000
5.637274 0.084890 0.000000
5.586372 1.608502 0.000000
8.500000 3.000000 0.000000
8.828389 -0.182882 0.000000
7.829649 -0.053243 0.000000
10.489511 0.131232 0.000000
10.184150 0.187242 0.000000
9.793676 -0.285057 0.000000
0.715784 -0.430453 0.000000
2.065917 1.705208 0.000000
2.313174 1.626808 0.000000
4.175665 1.747679 0.000000
1.708098 -0.230973 0.000000
1.483556 -0.137671 0.000000
1.089773 -0.223099 0.000000
2.269199 0.018831 0.000000
2.876769 -0.026177 0.000000
4.044575 0.070929 0.000000
3.841558 0.201505 0.000000
3.448160 0.176022 0.000000
4.439585 0.218694 0.000000
5.039955 0.089587 0.000000
4.839450 0.225415 0.000000
3.132059 1.898692 0.000000
4.582963 1.767909 0.000000
4.987351 1.729385 0.000000
3.972302 1.755869 0.000000
3.353275 1.788121 0.000000
2.738059 1.669184 0.000000
6.440715 0.195049 0.000000
7.231219 0.004268 0.000000
6.841510 0.172160 0.000000
5.439591 0.225121 0.000000
6.035578 0.074329 0.000000
5.839911 0.217953 0.000000
5.391154 1.679216 0.000000
6.990573 1.318690 0.000000
8.451912 1.062718 0.000000
6.969839 1.698441 0.000000
9.228497 -0.246408 0.000000
9.049994 -0.075282 0.000000
8.647743 -0.015712 0.000000
8.228914 -0.100046 0.000000
8.045145 0.062517 0.000000
7.643657 0.105394 0.000000
5.461545 -0.844239 0.000000
0.489517 -0.338796 0.000000
3.765618 1.932953 0.000000
1.876533 -0.056047 0.000000
0.883581 -0.224362 0.000000
2.064954 0.024485 0.000000
2.662000 0.083447 0.000000
3.055029 0.135837 0.000000
3.247301 0.200251 0.000000
4.238512 0.255582 0.000000
4.377926 1.741704 0.000000
5.184170 1.665188 0.000000
3.250000 3.000000 0.000000
6.242133 0.246525 0.000000
7.045083 0.200440 0.000000
5.239639 0.268775 0.000000
6.223431 1.673144 0.000000
7.845074 1.262386 0.000000
8.204885 1.001636 0.000000
7.201587 1.305410 0.000000
5.720707 1.771157 0.000000
9.983653 -0.273226 0.000000
8.452373 0.054368 0.000000
7.446848 0.166956 0.000000
0.988252 -0.480939 0.000000
2.157054 -0.340411 0.000000
3.304780 -0.167931 0.000000
4.295777 0.001268 0.000000
4.447781 2.010377 0.000000
5.199564 2.046193 0.000000
2.944665 1.700393 0.000000
6.281442 -0.010610 0.000000
6.976293 -0.051223 0.000000
5.288613 0.013344 0.000000
6.789084 1.363824 0.000000
6.499572 1.776634 0.000000
7.603306 1.192887 0.000000
7.991106 1.027736 0.000000
7.390710 1.209604 0.000000
5.596690 1.941810 0.000000
8.468541 -0.207925 0.000000
7.473633 -0.092787 0.000000
5.275456 1.852314 0.000000
5.786417 1.570696 0.000000
6.740303 1.606303 0.000000
6.588731 1.410851 0.000000
0.518855 1.087491 0.000000
9.462320 0.674567 0.000000
-0.250000 -2.000000 0.000000
1.893484 1.511867 0.000000
8.605044 0.858759 0.000000
0.362002 -0.715918 0.000000
3.561944 1.759590 0.000000
5.987105 1.534813 0.000000
8.130016 1.276951 0.000000
6.759947 1.889346 0.000000
0.642426 0.890843 0.000000
0.974450 1.314855 0.000000
9.206393 0.627708 0.000000
9.605804 0.456677 0.000000
1.697018 1.402714 0.000000
8.789790 0.743748 0.000000
6.397970 1.499793 0.000000
6.750000 3.000000 0.000000
0.844692 1.037545 0.000000
0.314616 0.822001 0.000000
1.253428 1.285811 0.000000
1.601753 1.805570 0.000000
1.488604 1.320188 0.000000
8.987558 0.661489 0.000000
8.901300 1.128758 0.000000
7.242613 1.761582 0.000000
1.509785 1.571130 0.000000
8.970766 0.899985 0.000000
7.465986 1.592769 0.000000
9.341583 1.137516 0.000000
5.961219 2.076331 0.000000
9.122676 1.071045 0.000000
9.300369 0.879549 0.000000
9.114296 1.492342 0.000000
4.046686 -0.409212 0.000000
2.788338 2.035817 0.000000
3.432244 2.222688 0.000000
2.406685 1.998686 0.000000
3.329394 2.016919 0.000000
2.600217 1.861938 0.000000
3.067598 2.276361 0.000000
6.007937 -0.403990 0.000000
8.157487 -0.578779 0.000000
7.508049 -0.351482 0.000000
7.108890 1.515592 0.000000
3.086422 -0.110196 0.000000
0.273664 -0.327745 0.000000
9.868972 0.691740 0.000000
1.830797 1.741339 0.000000
2.008736 2.116181 0.000000
1.778618 1.995763 0.000000
8.679754 1.074316 0.000000
8.694017 1.494277 0.000000
8.554620 1.288789 0.000000
8.333793 1.588617 0.000000
1.140171 1.851385 0.000000
9.614890 0.961576 0.000000
4.113343 -0.168844 0.000000
3.857493 -0.112475 0.000000
4.506121 -0.407192 0.000000
4.343346 -0.232626 0.000000
4.590578 -0.165265 0.000000
6.089213 -0.168729 0.000000
5.831714 -0.098104 0.000000
7.609447 -0.901454 0.000000
6.314328 -0.246499 0.000000
6.562572 -0.196501 0.000000
8.260714 -0.349485 0.000000
7.280792 -0.223179 0.000000
6.750000 -2.000000 0.000000
7.663940 1.437228 0.000000
6.263597 1.986124 0.000000
7.653557 2.073153 0.000000
7.045480 1.992441 0.000000
0.818110 -0.638694 0.000000
1.680209 2.463908 0.000000
1.140697 1.557364 0.000000
1.364501 1.763382 0.000000
1.417351 2.154382 0.000000
3.590571 -0.234238 0.000000
4.977219 -0.435947 0.000000
4.842524 -0.085901 0.000000
5.520941 -0.233517 0.000000
7.292024 -0.997284 0.000000
8.008385 -0.254907 0.000000
8.615575 -0.647126 0.000000
7.971935 1.575058 0.000000
7.492025 1.859414 0.000000
0.775837 -0.866835 0.000000
8.489847 -1.722068 0.000000
1.795434 2.243714 0.000000
2.375000 3.000000 0.000000
2.128165 2.558072 0.000000
1.917467 2.447817 0.000000
1.937500 3.000000 0.000000
1.817288 2.727906 0.000000
1.328527 1.476163 0.000000
0.625000 3.000000 0.000000
8.875344 -0.864397 0.000000
3.250000 -2.000000 0.000000
8.859711 -0.630788 0.000000
10.250000 -2.000000 0.000000
4.745725 -0.355133 0.000000
4.718210 -0.805914 0.000000
4.795540 -0.584404 0.000000
5.149552 -0.832242 0.000000
5.095764 -0.172005 0.000000
7.762366 -0.292915 0.000000
7.866071 -0.565573 0.000000
8.480119 -0.448261 0.000000
8.734336 -0.420667 0.000000
7.712882 1.703252 0.000000
7.334437 2.146418 0.000000
3.000451 -0.858234 0.000000
1.071557 -0.803643 0.000000
0.881375 1.556899 0.000000
3.015412 -0.324605 0.000000
7.664536 -0.677568 0.000000
5.278016 -0.412453 0.000000
9.097414 -0.732209 0.000000
9.524455 -0.420636 0.000000
9.000827 -0.388580 0.000000
7.989999 1.937404 0.000000
-2.000000 0.500000 0.000000
-0.250000 3.000000 0.000000
5.374546 -0.626321 0.000000
5.141363 -0.600185 0.000000
5.309033 -0.200195 0.000000
1.062500 3.000000 0.000000
7.625000 3.000000 0.000000
0.610643 1.391294 0.000000
6.479241 -0.424029 0.000000
9.238371 -0.515599 0.000000
6.240775 -0.480185 0.000000
8.598257 -0.931757 0.000000
3.806334 -0.353774 0.000000
[...]
POINT_DATA 1112
SCALARS scalar_field float
LOOKUP_TABLE default
14.664011
14.788424
14.650195
14.460545
14.241661
13.996992
13.741128
13.469613
13.184271
12.888010
12.581446
12.269635
11.947723
11.618093
11.282648
10.940877
10.599528
10.252391
9.902806
9.557886
9.211647
8.870755
8.534350
8.202466
7.876125
7.552549
7.234285
6.922237
6.615249
6.314164
6.019829
5.732580
5.450275
5.174957
4.906603
4.645192
4.391088
4.143605
3.903813
3.671977
3.445741
3.229188
3.021052
2.820734
2.631090
2.453229
2.290411
2.143492
2.019727
1.934307
1.975841
2.086802
2.524566
2.845815
3.136297
3.410121
3.673062
3.927690
4.175908
4.417668
4.656044
4.889915
5.121269
5.349419
5.574516
5.798437
6.019854
6.239557
6.458599
6.675926
6.891928
7.107922
7.322531
7.537379
7.751355
7.964939
8.179067
8.392471
8.606517
8.819997
9.033002
9.246076
9.457116
9.669534
9.881843
10.095915
10.312824
10.533763
10.757093
10.986162
11.219134
11.458258
11.704923
11.959421
12.222857
12.496417
12.783006
13.091280
13.414601
13.776118
14.206293
16.358363
0.000000
0.000000
16.697292
8.122821
7.777818
12.213088
13.009391
1.986578
0.000000
2.078957
2.007524
4.129151
1.921349
1.930212
2.043342
1.804630
1.921985
1.815733
2.355748
1.768270
2.351516
2.709020
1.899889
14.482288
11.788134
12.338861
10.863106
9.561985
8.499282
8.031381
9.195960
6.351108
7.430473
6.765529
3.288505
3.812575
5.010460
1.502571
1.758024
2.504171
13.207029
12.445131
12.115898
9.038766
11.817399
12.081907
12.626864
11.097891
10.417398
9.141005
9.352265
9.774093
8.713105
8.072038
8.285701
10.779163
8.365489
7.709283
9.381630
10.427428
11.454106
6.567852
5.689622
6.130941
7.644330
7.001020
7.215621
7.073476
4.771898
3.108744
4.891748
3.294511
3.549897
4.056224
4.543607
4.775891
5.237109
7.612198
13.559534
9.729642
11.575463
12.922040
11.335456
10.641904
10.202555
9.987858
8.926806
8.700282
7.390213
10.525893
6.784498
5.910079
7.858262
5.864060
3.773593
3.330318
4.512102
6.597707
2.226014
4.299807
5.463395
12.814327
11.287273
9.958050
8.873315
8.605759
7.421072
11.116976
6.731865
5.968684
7.804822
5.036745
5.511808
4.017065
3.553007
4.263274
6.808449
4.248192
5.411152
7.278239
6.461105
5.159903
5.308739
14.404194
2.183386
14.430699
12.747539
2.911940
13.728174
10.078841
6.163064
3.478210
5.193727
14.367891
13.903943
2.357940
2.058633
13.044061
2.719716
5.584603
5.305490
14.136868
14.631074
13.620347
13.030454
13.335702
2.535302
2.712618
4.572991
13.216966
2.604274
4.274946
2.337933
6.301275
2.511307
2.334838
2.580366
9.157726
11.304481
10.264205
11.885526
10.445579
11.625519
10.839610
7.018238
4.583832
5.352492
4.677733
10.193694
13.930191
1.896381
12.754320
12.425049
12.759325
2.900012
2.969361
3.063235
3.338383
13.571852
2.098989
9.076127
9.351343
8.655626
8.828437
8.559165
6.935602
7.217134
5.204437
6.687197
6.416918
4.480758
5.618299
6.165495
4.014011
5.867581
4.146376
4.852638
13.070717
12.807739
13.648610
13.332147
13.183033
9.649148
8.142616
8.285796
7.551835
5.564856
4.785103
4.029757
3.711437
4.297727
13.137779
4.142579
12.689617
11.835818
12.201103
12.498455
12.441510
12.608162
13.463629
14.034646
3.698154
10.097898
3.731069
2.012647
8.393694
8.429559
8.342228
7.955296
8.012706
5.066156
4.926106
4.209928
3.902855
4.018243
4.526599
10.352369
12.730902
13.927143
10.293585
5.152239
7.814915
3.427281
2.885448
3.573195
3.755628
16.593290
14.953589
7.708747
7.964041
7.781899
13.537942
4.242592
14.239685
6.499630
3.259685
6.760785
4.033942
9.419042
9.790095
9.387165
9.651610
9.962488
4.753650
4.374074
6.438586
5.720046
10.094313
6.079328
7.030065
6.953848
7.391936
6.704964
5.592482
5.842521
5.414664
3.069907
2.905333
10.366644
9.919316
6.231386
6.838923
3.422406
3.798756
3.134309
3.553032
2.708081
3.414872
3.146411
10.704355
9.932668
6.415307
7.271558
6.548742
10.744650
9.577303
6.035753
7.148661
6.348695
7.252409
6.905701
6.371556
6.650506
5.986461
6.889219
7.313998
6.659074
6.645331
6.917491
6.412808
7.197174
7.576438
7.636065
7.739153
1.572611
1.847715
1.681329
1.434208
2.034634
12.381692
2.045869
1.806337
9.530240
7.597350
7.295986
3.497970
3.285980
3.547331
3.297777
3.514383
3.556443
3.634956
3.901094
12.290432
11.932451
11.701645
11.195231
11.520833
11.685546
11.212289
11.163926
10.722697
10.863254
12.729561
12.873564
7.564131
14.768930
14.208633
4.318751
13.411754
4.272135
4.232417
4.538017
4.026681
4.054878
3.797101
4.838676
4.649229
3.601704
5.161845
4.319831
4.544959
4.576409
5.035956
3.755495
3.866133
4.390055
3.594660
3.335978
3.203133
2.803249
3.028927
2.538529
3.005028
2.601042
2.625302
2.651375
2.213187
2.351768
10.515758
9.605707
9.100852
8.956533
5.789258
5.923546
5.968789
6.065028
5.666947
5.694763
5.916830
7.792607
8.216507
7.515823
7.972276
8.232097
7.963798
8.170321
8.596097
7.998359
7.879434
7.757790
7.392525
7.550683
1.742812
1.475126
1.709119
1.562525
1.177784
1.363939
1.359324
1.117899
1.040137
1.166109
1.274246
0.783545
1.352554
0.617711
1.189460
1.176006
1.014418
0.839910
0.000000
1.601947
1.896636
0.757601
0.945276
0.993656
0.673731
0.723172
1.629377
1.390758
2.002817
0.000000
0.319722
0.430229
6.487649
4.230848
11.384734
10.506737
9.759991
10.112024
10.506480
9.145573
9.839164
10.849797
10.183889
10.013849
9.632376
13.086568
13.402131
13.078429
5.189773
4.843761
3.850791
14.660671
14.290207
13.333322
12.366938
5.085147
5.413627
3.015011
3.293114
2.803790
2.708156
2.438237
2.435379
1.993066
1.638482
9.482035
9.244562
5.415655
5.086553
5.428979
1.312926
1.198337
0.951007
0.000000
0.354426
0.702563
0.000000
0.807680
0.584211
0.618163
2.420553
0.368850
1.828113
2.234673
0.225673
0.000000
0.232542
0.495566
0.000000
0.242642
9.369024
8.792239
9.105424
13.885864
13.511783
13.733274
14.111799
13.877952
5.510891
5.680598
5.501919
5.348331
5.952873
4.121472
5.880985
4.393676
4.704321
5.077092
4.759222
3.753256
5.500878
5.038494
3.649858
3.342720
3.895384
3.325123
2.845699
3.064527
3.270744
3.518196
3.631483
1.657793
2.670504
2.794544
1.436088
2.824694
2.994986
3.056079
1.600640
1.717321
2.564265
3.132506
3.059782
2.903447
2.608749
2.007425
3.261136
2.796849
2.271862
2.528746
2.366932
14.473845
14.413881
15.136861
12.676482
12.360514
12.531718
11.727802
12.055175
12.055990
11.704540
11.978382
11.411886
11.283695
11.040051
11.439434
11.638522
11.080730
11.939641
11.130721
10.551625
10.844040
10.564139
10.325061
10.281996
10.790353
11.451393
5.337531
5.665145
5.655668
2.274615
2.142061
0.990803
1.496466
1.793235
1.582754
2.261816
1.762855
2.003794
1.913849
1.394960
9.629085
9.956490
9.270375
9.713871
9.595867
9.672908
9.371061
9.845919
9.970383
9.132899
10.258283
11.457743
11.133328
10.608768
10.958183
11.191574
11.665500
11.464580
11.769639
10.859486
10.483695
12.182617
11.043507
10.868387
8.900427
4.906476
4.783826
4.837792
0.931837
0.000000
2.412034
2.394020
2.102535
0.000000
0.613991
0.445569
0.598430
1.021801
0.316042
0.346524
9.088324
5.958404
9.465794
13.604839
13.152169
13.729772
13.352522
14.502874
13.921681
14.084885
14.122352
13.828461
6.191477
4.640411
4.787086
4.438787
4.497571
4.162723
5.028594
2.023999
3.994591
2.591258
2.302941
1.881274
2.212798
14.791093
14.572656
14.647642
14.544121
14.921946
14.409287
15.074939
15.306145
14.294540
14.617262
15.061607
14.685562
15.328833
15.079089
15.127608
15.093234
14.845205
14.852324
14.888163
15.329619
15.827349
16.693923
15.517713
15.567508
15.296319
16.044037
15.534167
15.393006
15.952800
15.508968
15.721190
15.303486
15.771523
15.094623
15.174133
15.573808
16.261217
16.680552
15.797156
15.902184
16.045572
16.339311
16.324347
14.876006
12.238707
10.951045
1.471376
1.242576
1.114354
1.425489
9.007675
8.610465
11.960024
12.194802
12.770983
9.017150
8.710371
9.144068
8.728596
8.472787
0.152989
0.235421
0.000000
1.125715
1.322800
1.081783
1.311291
0.000000
8.455215
8.251782
5.888801
6.257461
7.121309
2.297923
2.002773
2.382538
2.148242
14.890405
15.401406
15.696369
15.833488
16.478876
16.696454
16.245121
16.485281
14.730998
14.774380
14.986174
0.321826
8.776095
0.226171
0.872929
0.810116
0.565651
0.493092
0.722538
8.477129
8.050343
7.762387
7.669314
7.096779
7.355539
7.087175
7.442893
6.726797
6.742271
7.876506
6.796104
7.064458
7.639709
8.285760
7.446532
7.279428
7.975275
1.917544
1.786152
1.356517
1.572121
1.570789
1.413281
1.048852
1.181223
1.249315
1.265182
0.800252
1.444092
0.953888
0.633789
0.775802
0.755347
0.530513
0.581114
0.000000
1.162881
1.305506
1.200432
0.918502
1.097389
1.166319
1.482512
1.000284
0.900222
0.675793
1.400887
0.729478
0.400230
0.920828
0.581410
0.000000
0.438328
0.600264
0.253016
0.000000
0.209364
2.091074
1.849010
2.060658
15.213218
15.259202
15.335295
15.226115
15.724080
14.730200
14.619641
14.275662
15.576152
15.728755
16.517532
8.970499
8.505539
8.602443
8.366471
8.244448
12.730055
13.042538
13.144676
13.570410
12.874022
13.106467
12.526814
13.545746
12.902347
13.293433
13.455555
13.362251
13.052093
12.575787
0.246220
6.438824
8.717085
0.344660
0.378782
0.176429
0.282962
0.151350
1.726705
1.662249
1.804027
15.048535
15.219066
15.505211
14.465678
14.124416
14.271541
16.310770
15.579904
13.889575
8.566600
0.375903
15.157444
15.973347
13.983541
15.972221
14.341740
13.478275
13.920421
13.613061
13.736672
0.444357
0.621139
0.000000
0.869348
0.518288
0.203826
15.377966
15.670237
14.934462
16.047997
16.095910
16.649189
16.381839
15.980671
13.924690
1.070596
1.131139
0.670123
0.182601
15.725922
16.436534
15.481866
14.946197
14.711348
14.862189
16.688777
16.333442
16.249047
16.156466
13.962897
14.117484
14.521655
14.224465
13.805443
0.942680
15.772317
16.515905
16.150387
15.995703
16.276910
15.807569
15.027091
15.203111
15.432293
15.163164
15.111397
15.472102
14.729473
16.529640
16.342071
16.667679
16.624596
16.411143
14.170040
14.155375
14.282574
14.442749
14.851603
16.556148
15.588455
16.136216
16.509391
16.532272
16.454889
13.951589
14.473011
16.367645
16.127127
8.938289
10.965321
6.218436
12.242002
2.754405
2.572396
3.978471
6.145788
10.604128
7.138468
1.635513
12.094174
4.814176
8.199401
8.159607
11.544846
10.075755
10.558590
8.641430
8.908298
0.216440
6.181144
14.845196
6.480259
6.801358
15.441597
14.162727
14.727489
14.591599
14.837061
15.388353
14.949420
15.097918
14.739960
15.230114
15.235256
15.256356
15.681401
14.984149
15.910421
15.198316
15.441799
15.678369
16.379284
16.134843
16.036431
15.861422
15.966476
15.981258
16.474936
15.629497
16.219623
16.404068
15.802280
16.184877
16.101510
15.937317
15.650573
15.736283
15.489072
16.344217
16.098664
15.377293
16.363825
16.034809
16.136937
14.872565
15.007058
14.689631
14.634107
14.940644
15.562624
15.657189
15.867908
15.885431

